 Q-Chem 6.0 (devel), Q-Chem, Inc., Pleasanton, CA (2022)
 Q-Chem 6.0.2 for Intel X86 EM64T Linux

User input:
--------------------------------------------------------------
$molecule
-2 1
  O   -0.3020517   -0.0030488   -0.0608248
  H    0.7723046   -0.1693890    0.0424309
  H   -0.3867279    0.9094388   -0.6547275
  F    1.4777795   -0.9068063    0.4062690
  F   -1.1363580    1.4995667   -1.1682408
$end

$rem
jobtype opt
method hf
basis 6-31g
threads 4
input_bohr true
mem_total 10000
!QSYS wt=01:00:00
$end
--------------------------------------------------------------

   13    -270.0866753806      8.86e-09  Convergence criterion met
 Total energy in the final basis set =     -270.0866753806
   15    -272.3941855113      6.58e-09  Convergence criterion met
 Total energy in the final basis set =     -272.3941855113
   17    -272.9728911046      4.21e-09  Convergence criterion met
 Total energy in the final basis set =     -272.9728911046
   14    -273.8717104721      6.71e-09  Convergence criterion met
 Total energy in the final basis set =     -273.8717104721
   11    -274.3507254274      9.51e-09  Convergence criterion met
 Total energy in the final basis set =     -274.3507254274
   11    -274.4667214883      3.36e-09  Convergence criterion met
 Total energy in the final basis set =     -274.4667214883
   11    -274.5463667568      3.69e-09  Convergence criterion met
 Total energy in the final basis set =     -274.5463667568
   10    -274.5907040598      6.45e-09  Convergence criterion met
    6    -274.6638764452      8.56e-09  Convergence criterion met
 Total energy in the final basis set =     -274.6638764452
    7    -274.6638765834      4.84e-09  Convergence criterion met
 Total energy in the final basis set =     -274.6638765834
    7    -274.6638768831      6.10e-09  Convergence criterion met
 Total energy in the final basis set =     -274.6638768831
    8    -274.6638775726      1.87e-09  Convergence criterion met
 Total energy in the final basis set =     -274.6638775726
    8    -274.6638787332      2.97e-09  Convergence criterion met
 Total energy in the final basis set =     -274.6638787332
    8    -274.6638799534      3.50e-09  Convergence criterion met
 Total energy in the final basis set =     -274.6638799534
    8    -274.6638805180      2.52e-09  Convergence criterion met
 Total energy in the final basis set =     -274.6638805180

                    Orbital Energies (a.u.)
 --------------------------------------------------------------

 Alpha MOs
 -- Occupied --
-25.6514 -25.6510 -20.1190  -0.9236  -0.9182  -0.9036  -0.2942  -0.1333
 -0.0775  -0.0287  -0.0287  -0.0284  -0.0281  -0.0221  -0.0168

          Ground-State Mulliken Net Atomic Charges

     Atom                 Charge (a.u.)
  ----------------------------------------
      1 O                    -1.051170
      2 H                     0.431587
      3 H                     0.430962
      4 F                    -0.905461
      5 F                    -0.905917
  ----------------------------------------
  Sum of atomic charges =    -2.000000

                    Cartesian Multipole Moments
 -----------------------------------------------------------------
    Charge (ESU x 10^10)
                -9.6064
    Dipole Moment (Debye)
         X      -0.0176      Y      -2.3909      Z      -0.1193
       Tot       2.3939
    Quadrupole Moments (Debye-Ang)
        XX     -71.4132     XY      -0.0547     YY     -24.8079
        XZ       0.0167     YZ      -0.7617     ZZ     -19.0901

 Final energy is -274.663880518023
	**  OPTIMIZATION CONVERGED  **
 Total job time:  44.22s(wall), 94.27s(cpu)
        *  Thank you very much for using Q-Chem.  Have a nice day.  *
