 Q-Chem 6.0 (devel), Q-Chem, Inc., Pleasanton, CA (2022)
 Q-Chem 6.0.2 for Intel X86 EM64T Linux

User input:
--------------------------------------------------------------
$molecule
-1 1
  O   -0.3174495    0.0719407   -0.0988942
  H    0.7471196   -0.1474259    0.0060105
  H   -0.3492505    0.9677168   -0.5207113
  F    1.4446001   -0.8975617    0.3603570
$end

$rem
jobtype opt
method hf
input_bohr true
basis 6-31g
threads 4
mem_total 10000
!QSYS wt=01:00:00
$end
--------------------------------------------------------------

   19    -172.3996941869      2.23e-09  Convergence criterion met
 Total energy in the final basis set =     -172.3996941869
   13    -174.2498817216      2.69e-09  Convergence criterion met
 Total energy in the final basis set =     -174.2498817216
   11    -174.8199052674      7.43e-09  Convergence criterion met
 Total energy in the final basis set =     -174.8199052674
   11    -175.1645792932      7.92e-09  Convergence criterion met
 Total energy in the final basis set =     -175.1645792932
   11    -175.2733857405      2.49e-09  Convergence criterion met
 Total energy in the final basis set =     -175.2733857405
   11    -175.3419400774      2.51e-09  Convergence criterion met
 Total energy in the final basis set =     -175.3419400774
   11    -175.3753616088      2.12e-09  Convergence criterion met
 Total energy in the final basis set =     -175.3753616088
   11    -175.3911003404      1.58e-09  Convergence criterion met
    8    -175.3987894765      4.73e-09  Convergence criterion met
 Total energy in the final basis set =     -175.3987894765
    8    -175.3987924200      4.79e-09  Convergence criterion met
 Total energy in the final basis set =     -175.3987924200
    8    -175.3987967051      7.59e-09  Convergence criterion met
 Total energy in the final basis set =     -175.3987967051
    9    -175.3988034698      2.91e-09  Convergence criterion met
 Total energy in the final basis set =     -175.3988034698
    9    -175.3988097359      4.56e-09  Convergence criterion met
 Total energy in the final basis set =     -175.3988097359
    9    -175.3988120661      3.16e-09  Convergence criterion met
 Total energy in the final basis set =     -175.3988120661
    8    -175.3988123493      3.45e-09  Convergence criterion met
 Total energy in the final basis set =     -175.3988123493

                    Orbital Energies (a.u.)
 --------------------------------------------------------------

 Alpha MOs
 -- Occupied --
-25.8205 -20.2822  -1.1054  -1.0608  -0.4436  -0.3118  -0.2388  -0.1961
 -0.1942  -0.1730

          Ground-State Mulliken Net Atomic Charges

     Atom                 Charge (a.u.)
  ----------------------------------------
      1 O                    -0.970535
      2 H                     0.502028
      3 H                     0.319406
      4 F                    -0.850899
  ----------------------------------------
  Sum of atomic charges =    -1.000000

                    Cartesian Multipole Moments
 -----------------------------------------------------------------
    Charge (ESU x 10^10)
                -4.8032
    Dipole Moment (Debye)
         X       3.2743      Y       1.5136      Z      -0.0002
       Tot       3.6072
    Quadrupole Moments (Debye-Ang)
        XX     -23.4912     XY       3.8145     YY     -12.3235
        XZ      -0.0002     YZ      -0.0000     ZZ     -13.1819

 Final energy is -175.398812349275
 Total job time:  17.93s(wall), 70.48s(cpu)
        *  Thank you very much for using Q-Chem.  Have a nice day.  *
