 Q-Chem 6.0 (devel), Q-Chem, Inc., Pleasanton, CA (2022)
 Q-Chem 6.0.2 for Intel X86 EM64T Linux

User input:
--------------------------------------------------------------
$molecule
0 1
  F    0.1654340    0.3629310    0.0948891
  H   -0.7681508    0.3529982    0.7175341
  F   -0.8466398   -0.6421835    0.2048763
  H   -0.6033177   -1.5162606   -0.4555417
  F    0.2719916   -0.8454581   -0.6634505
  Li    0.9622579    0.0385514   -0.6256800
$end

$rem
jobtype opt
method b3lyp
basis 3-21++g
input_bohr true
threads 1
mem_total 10000
!QSYS wt=01:00:00
$end
--------------------------------------------------------------

   13    -290.3904106756      6.24e-09  Convergence criterion met
 Total energy in the final basis set =     -290.3904106756
   12    -296.8725605388      8.18e-09  Convergence criterion met
 Total energy in the final basis set =     -296.8725605388
   12    -300.0071933342      7.70e-09  Convergence criterion met
 Total energy in the final basis set =     -300.0071933342
   11    -302.4030819294      4.58e-09  Convergence criterion met
 Total energy in the final basis set =     -302.4030819294
   10    -303.9961354431      7.47e-09  Convergence criterion met
 Total energy in the final basis set =     -303.9961354431
    9    -305.0221141877      6.50e-09  Convergence criterion met
 Total energy in the final basis set =     -305.0221141877
    9    -305.6887561178      5.62e-09  Convergence criterion met
 Total energy in the final basis set =     -305.6887561178
    9    -306.1226392776      1.93e-09  Convergence criterion met
    7    -306.8466499839      1.59e-09  Convergence criterion met
 Total energy in the final basis set =     -306.8466499839
    7    -306.8466526117      7.13e-10  Convergence criterion met
 Total energy in the final basis set =     -306.8466526117
    7    -306.8466575423      1.40e-09  Convergence criterion met
 Total energy in the final basis set =     -306.8466575423
    7    -306.8466646301      9.09e-10  Convergence criterion met
 Total energy in the final basis set =     -306.8466646301
    7    -306.8466709601      1.94e-09  Convergence criterion met
 Total energy in the final basis set =     -306.8466709601
    7    -306.8466731851      1.76e-09  Convergence criterion met
 Total energy in the final basis set =     -306.8466731851
    7    -306.8466734521      7.88e-10  Convergence criterion met
 Total energy in the final basis set =     -306.8466734521

             Orbital Energies (a.u.) and Symmetries
 --------------------------------------------------------------

 Alpha MOs, Restricted
 -- Occupied --
-24.580 -24.580 -24.579  -2.015  -1.198  -1.168  -1.141  -0.566
  1 A1    1 B1    2 A1    3 A1    4 A1    2 B1    5 A1    3 B1
 -0.540  -0.441  -0.425  -0.420  -0.408  -0.402  -0.395  -0.391
  6 A1    7 A1    1 B2    4 B1    1 A2    5 B1    2 B2    8 A1

 Beta MOs, Restricted
 -- Occupied --
-24.580 -24.580 -24.579  -2.015  -1.198  -1.168  -1.141  -0.566
  1 A1    1 B1    2 A1    3 A1    4 A1    2 B1    5 A1    3 B1
 -0.540  -0.441  -0.425  -0.420  -0.408  -0.402  -0.395  -0.391
  6 A1    7 A1    1 B2    4 B1    1 A2    5 B1    2 B2    8 A1

          Ground-State Mulliken Net Atomic Charges

     Atom                 Charge (a.u.)
  ----------------------------------------
      1 F                    -0.526488
      2 H                     0.453035
      3 F                    -0.545884
      4 H                     0.453035
      5 F                    -0.526488
      6 Li                    0.692789
  ----------------------------------------
  Sum of atomic charges =     0.000000

                    Cartesian Multipole Moments
 -----------------------------------------------------------------
    Charge (ESU x 10^10)
                -0.0000
    Dipole Moment (Debye)
         X      -0.0000      Y      -0.0000      Z       4.6550
       Tot       4.6550
    Quadrupole Moments (Debye-Ang)
        XX     -27.5972     XY      -0.0000     YY     -19.5259
        XZ      -0.0000     YZ       0.0000     ZZ     -14.1906

 Final energy is -306.846673452123
	**  OPTIMIZATION CONVERGED  **
 Total job time:  117.75s(wall), 117.53s(cpu)
        *  Thank you very much for using Q-Chem.  Have a nice day.  *
