 Q-Chem 6.0 (devel), Q-Chem, Inc., Pleasanton, CA (2022)
 Q-Chem 6.0.2 for Intel X86 EM64T Linux

User input:
--------------------------------------------------------------
$molecule
0 1
  O    0.6889327    0.0000000    0.7113184
  F   -0.0000000    0.0000000    1.8397001
  H    0.0000000    0.0000000    0.0000000
$end

$rem
jobtype opt
method blyp
basis 6-31g
input_bohr true
threads 1
mem_total 10000
!QSYS wt=01:00:00
$end

--------------------------------------------------------------

   11    -172.3421920006      1.44e-09  Convergence criterion met
 Total energy in the final basis set =     -172.3421920006
    9    -174.2742668448      1.24e-09  Convergence criterion met
 Total energy in the final basis set =     -174.2742668448
    9    -174.8160527671      3.45e-09  Convergence criterion met
 Total energy in the final basis set =     -174.8160527671
    9    -175.2054969615      5.05e-09  Convergence criterion met
 Total energy in the final basis set =     -175.2054969615
    9    -175.3419945875      5.44e-09  Convergence criterion met
 Total energy in the final basis set =     -175.3419945875
    9    -175.4255432596      8.15e-09  Convergence criterion met
 Total energy in the final basis set =     -175.4255432596
    9    -175.4621338075      7.11e-09  Convergence criterion met
 Total energy in the final basis set =     -175.4621338075
    9    -175.4763427804      4.41e-09  Convergence criterion met
    8    -175.4806488196      1.14e-09  Convergence criterion met
 Total energy in the final basis set =     -175.4806488196
    9    -175.4807139004      8.77e-10  Convergence criterion met
 Total energy in the final basis set =     -175.4807139004
    9    -175.4807493482      2.72e-10  Convergence criterion met
 Total energy in the final basis set =     -175.4807493482
    9    -175.4807627447      3.64e-10  Convergence criterion met
 Total energy in the final basis set =     -175.4807627447
    8    -175.4807669738      9.61e-10  Convergence criterion met
 Total energy in the final basis set =     -175.4807669738
    8    -175.4807679760      1.23e-09  Convergence criterion met
 Total energy in the final basis set =     -175.4807679760
    8    -175.4807680881      5.65e-10  Convergence criterion met
 Total energy in the final basis set =     -175.4807680881

             Orbital Energies (a.u.) and Symmetries
 --------------------------------------------------------------

 Alpha MOs, Restricted
 -- Occupied --
-24.326 -18.901  -1.092  -0.890  -0.481  -0.409  -0.362  -0.307
  1 A'    2 A'    3 A'    4 A'    5 A'    6 A'    1 A"    7 A'
 -0.251
  2 A"

 Beta MOs, Restricted
 -- Occupied --
-24.326 -18.901  -1.092  -0.890  -0.481  -0.409  -0.362  -0.307
  1 A'    2 A'    3 A'    4 A'    5 A'    6 A'    1 A"    7 A'
 -0.251
  2 A"

          Ground-State Mulliken Net Atomic Charges

     Atom                 Charge (a.u.)
  ----------------------------------------
      1 O                    -0.244103
      2 F                    -0.141253
      3 H                     0.385355
  ----------------------------------------
  Sum of atomic charges =     0.000000

                    Cartesian Multipole Moments
 -----------------------------------------------------------------
    Charge (ESU x 10^10)
                 0.0000
    Dipole Moment (Debye)
         X       1.2243      Y      -1.8680      Z       0.0000
       Tot       2.2334
    Quadrupole Moments (Debye-Ang)
        XX      -9.7108     XY      -1.4569     YY      -9.8258
        XZ       0.0000     YZ      -0.0000     ZZ     -10.9900

 Final energy is -175.480768088091
	**  OPTIMIZATION CONVERGED  **
 Total job time:  11.68s(wall), 11.49s(cpu)
        *  Thank you very much for using Q-Chem.  Have a nice day.  *
